
     Program PHONON v.6.8 starts on 15Jan2022 at 10:20:42 

     This program is part of the open-source Quantum ESPRESSO suite
     for quantum simulation of materials; please cite
         "P. Giannozzi et al., J. Phys.:Condens. Matter 21 395502 (2009);
         "P. Giannozzi et al., J. Phys.:Condens. Matter 29 465901 (2017);
         "P. Giannozzi et al., J. Chem. Phys. 152 154105 (2020);
          URL http://www.quantum-espresso.org", 
     in publications or presentations arising from this work. More details at
     http://www.quantum-espresso.org/quote

     Parallel version (MPI), running on    28 processors

     MPI processes distributed on     1 nodes
     path-images division:  nimage    =       7
     K-points division:     npool     =       4
     112522 MiB available memory on the printing compute node when the environment starts
 
     Waiting for input...
     Reading input from standard input

     Reading xml data from directory:

     outputs/mos2-bulk_.save/

     IMPORTANT: XC functional enforced from input :
     Exchange-correlation= PBESOL
                           (   1   4  10   8   0   0   0)
     Any further DFT definition will be discarded
     Please, verify this is what you really want

 
     G-vector sticks info
     --------------------
     sticks:   dense  smooth     PW     G-vecs:    dense   smooth      PW
     Sum         703     397    139                69899    30137    5927
 
     Using Slab Decomposition
 
     Reading collected, re-writing distributed wavefunctions
  autoval = -.1026E+00
     Irreps are as follows:

                     mode #   1
                     (   0.00000   0.00000   ) 
                     (   0.00000   0.00000   ) 
                     (   0.00000   0.00000   ) 
                     (   0.00000   0.00000   ) 
                     (   0.00000   0.00000   ) 
                     (   0.00000   0.00000   ) 
                     (   0.00000   0.00000   ) 
                     (  -0.00000   0.00000   ) 
                     (  -0.50000   0.00000   ) 
                     (   0.00000   0.00000   ) 
                     (  -0.00000   0.00000   ) 
                     (   0.50000   0.00000   ) 
                     (  -0.00000   0.00000   ) 
                     (   0.00000   0.00000   ) 
                     (  -0.50000   0.00000   ) 
                     (  -0.00000   0.00000   ) 
                     (   0.00000   0.00000   ) 
                     (   0.50000   0.00000   ) 
  autoval = -.6133E-01
     Irreps are as follows:

                     mode #   2
                     (   0.00000   0.00000   ) 
                     (   0.00000   0.00000   ) 
                     (   0.00000   0.00000   ) 
                     (   0.00000   0.00000   ) 
                     (   0.00000   0.00000   ) 
                     (   0.00000   0.00000   ) 
                     (   0.00000   0.00000   ) 
                     (  -0.00000   0.00000   ) 
                     (  -0.50000   0.00000   ) 
                     (   0.00000   0.00000   ) 
                     (  -0.00000   0.00000   ) 
                     (  -0.50000   0.00000   ) 
                     (  -0.00000   0.00000   ) 
                     (   0.00000   0.00000   ) 
                     (  -0.50000   0.00000   ) 
                     (  -0.00000   0.00000   ) 
                     (   0.00000   0.00000   ) 
                     (  -0.50000   0.00000   ) 
  autoval = -.5235E-01
     Irreps are as follows:

                     mode #   3
                     (   0.00000   0.00000   ) 
                     (   0.00000   0.00000   ) 
                     (   0.00000   0.00000   ) 
                     (   0.00000   0.00000   ) 
                     (   0.00000   0.00000   ) 
                     (   0.00000   0.00000   ) 
                     (  -0.00000   0.00000   ) 
                     (  -0.00000   0.00000   ) 
                     (  -0.50000   0.00000   ) 
                     (  -0.00000   0.00000   ) 
                     (  -0.00000   0.00000   ) 
                     (  -0.50000   0.00000   ) 
                     (   0.00000   0.00000   ) 
                     (   0.00000   0.00000   ) 
                     (   0.50000   0.00000   ) 
                     (   0.00000   0.00000   ) 
                     (   0.00000   0.00000   ) 
                     (   0.50000   0.00000   ) 
  autoval = -.3843E-01
     Irreps are as follows:

                     mode #   4
                     (  -0.00000   0.00000   ) 
                     (   0.00000   0.00000   ) 
                     (  -0.70711   0.00000   ) 
                     (   0.00000   0.00000   ) 
                     (  -0.00000   0.00000   ) 
                     (   0.70711   0.00000   ) 
                     (   0.00000   0.00000   ) 
                     (   0.00000   0.00000   ) 
                     (   0.00000   0.00000   ) 
                     (   0.00000   0.00000   ) 
                     (   0.00000   0.00000   ) 
                     (   0.00000   0.00000   ) 
                     (   0.00000   0.00000   ) 
                     (   0.00000   0.00000   ) 
                     (   0.00000   0.00000   ) 
                     (   0.00000   0.00000   ) 
                     (   0.00000   0.00000   ) 
                     (   0.00000   0.00000   ) 
  autoval = -.1581E-01
     Irreps are as follows:

                     mode #   5
                     (  -0.00000   0.00000   ) 
                     (   0.00000   0.00000   ) 
                     (  -0.70711   0.00000   ) 
                     (  -0.00000   0.00000   ) 
                     (  -0.00000   0.00000   ) 
                     (  -0.70711   0.00000   ) 
                     (   0.00000   0.00000   ) 
                     (   0.00000   0.00000   ) 
                     (   0.00000   0.00000   ) 
                     (   0.00000   0.00000   ) 
                     (   0.00000   0.00000   ) 
                     (   0.00000   0.00000   ) 
                     (   0.00000   0.00000   ) 
                     (   0.00000   0.00000   ) 
                     (   0.00000   0.00000   ) 
                     (   0.00000   0.00000   ) 
                     (   0.00000   0.00000   ) 
                     (   0.00000   0.00000   ) 
  autoval = -.6429E-02
     Irreps are as follows:

                     mode #   6
                     (   0.00000   0.00000   ) 
                     (   0.00000   0.00000   ) 
                     (   0.00000   0.00000   ) 
                     (   0.00000   0.00000   ) 
                     (   0.00000   0.00000   ) 
                     (   0.00000   0.00000   ) 
                     (  -0.00000   0.00000   ) 
                     (  -0.00000   0.00000   ) 
                     (  -0.50000   0.00000   ) 
                     (  -0.00000   0.00000   ) 
                     (  -0.00000   0.00000   ) 
                     (   0.50000   0.00000   ) 
                     (   0.00000   0.00000   ) 
                     (   0.00000   0.00000   ) 
                     (   0.50000   0.00000   ) 
                     (   0.00000   0.00000   ) 
                     (   0.00000   0.00000   ) 
                     (  -0.50000   0.00000   ) 
  autoval = 0.7611E-01
     Irreps are as follows:

                     mode #   7
                     (   0.00000   0.00000   ) 
                     (   0.00000   0.00000   ) 
                     (   0.00000   0.00000   ) 
                     (   0.00000   0.00000   ) 
                     (   0.00000   0.00000   ) 
                     (   0.00000   0.00000   ) 
                     (  -0.00020   0.00000   ) 
                     (  -0.50000   0.00000   ) 
                     (   0.00000   0.00000   ) 
                     (  -0.00020   0.00000   ) 
                     (  -0.50000   0.00000   ) 
                     (   0.00000   0.00000   ) 
                     (   0.00020   0.00000   ) 
                     (   0.50000   0.00000   ) 
                     (  -0.00000   0.00000   ) 
                     (   0.00020   0.00000   ) 
                     (   0.50000   0.00000   ) 
                     (  -0.00000   0.00000   ) 
  autoval = 0.7611E-01
     Irreps are as follows:

                     mode #   8
                     (   0.00000   0.00000   ) 
                     (   0.00000   0.00000   ) 
                     (   0.00000   0.00000   ) 
                     (   0.00000   0.00000   ) 
                     (   0.00000   0.00000   ) 
                     (   0.00000   0.00000   ) 
                     (  -0.50000   0.00000   ) 
                     (   0.00020   0.00000   ) 
                     (   0.00000   0.00000   ) 
                     (  -0.50000   0.00000   ) 
                     (   0.00020   0.00000   ) 
                     (  -0.00000   0.00000   ) 
                     (   0.50000   0.00000   ) 
                     (  -0.00020   0.00000   ) 
                     (  -0.00000   0.00000   ) 
                     (   0.50000   0.00000   ) 
                     (  -0.00020   0.00000   ) 
                     (   0.00000   0.00000   ) 
  autoval = 0.1514E+00
     Irreps are as follows:

                     mode #   9
                     (  -0.00004   0.00000   ) 
                     (  -0.70711   0.00000   ) 
                     (  -0.00000   0.00000   ) 
                     (   0.00004   0.00000   ) 
                     (   0.70711   0.00000   ) 
                     (  -0.00000   0.00000   ) 
                     (   0.00000   0.00000   ) 
                     (   0.00000   0.00000   ) 
                     (   0.00000   0.00000   ) 
                     (   0.00000   0.00000   ) 
                     (   0.00000   0.00000   ) 
                     (   0.00000   0.00000   ) 
                     (   0.00000   0.00000   ) 
                     (   0.00000   0.00000   ) 
                     (   0.00000   0.00000   ) 
                     (   0.00000   0.00000   ) 
                     (   0.00000   0.00000   ) 
                     (   0.00000   0.00000   ) 
  autoval = 0.1514E+00
     Irreps are as follows:

                     mode #  10
                     (  -0.70711   0.00000   ) 
                     (   0.00004   0.00000   ) 
                     (   0.00000   0.00000   ) 
                     (   0.70711   0.00000   ) 
                     (  -0.00004   0.00000   ) 
                     (  -0.00000   0.00000   ) 
                     (   0.00000   0.00000   ) 
                     (   0.00000   0.00000   ) 
                     (   0.00000   0.00000   ) 
                     (   0.00000   0.00000   ) 
                     (   0.00000   0.00000   ) 
                     (   0.00000   0.00000   ) 
                     (   0.00000   0.00000   ) 
                     (   0.00000   0.00000   ) 
                     (   0.00000   0.00000   ) 
                     (   0.00000   0.00000   ) 
                     (   0.00000   0.00000   ) 
                     (   0.00000   0.00000   ) 
  autoval = 0.9394E+00
     Irreps are as follows:

                     mode #  11
                     (   0.00000   0.00000   ) 
                     (   0.00000   0.00000   ) 
                     (   0.00000   0.00000   ) 
                     (   0.00000   0.00000   ) 
                     (   0.00000   0.00000   ) 
                     (   0.00000   0.00000   ) 
                     (  -0.00003   0.00000   ) 
                     (   0.50000   0.00000   ) 
                     (   0.00000   0.00000   ) 
                     (  -0.00003   0.00000   ) 
                     (   0.50000   0.00000   ) 
                     (  -0.00000   0.00000   ) 
                     (  -0.00003   0.00000   ) 
                     (   0.50000   0.00000   ) 
                     (  -0.00000   0.00000   ) 
                     (  -0.00003   0.00000   ) 
                     (   0.50000   0.00000   ) 
                     (   0.00000   0.00000   ) 
  autoval = 0.9394E+00
     Irreps are as follows:

                     mode #  12
                     (   0.00000   0.00000   ) 
                     (   0.00000   0.00000   ) 
                     (   0.00000   0.00000   ) 
                     (   0.00000   0.00000   ) 
                     (   0.00000   0.00000   ) 
                     (   0.00000   0.00000   ) 
                     (  -0.50000   0.00000   ) 
                     (  -0.00003   0.00000   ) 
                     (  -0.00000   0.00000   ) 
                     (  -0.50000   0.00000   ) 
                     (  -0.00003   0.00000   ) 
                     (  -0.00000   0.00000   ) 
                     (  -0.50000   0.00000   ) 
                     (  -0.00003   0.00000   ) 
                     (   0.00000   0.00000   ) 
                     (  -0.50000   0.00000   ) 
                     (  -0.00003   0.00000   ) 
                     (   0.00000   0.00000   ) 
  autoval = 0.1349E+01
     Irreps are as follows:

                     mode #  13
                     (  -0.00001   0.00000   ) 
                     (  -0.70711   0.00000   ) 
                     (   0.00000   0.00000   ) 
                     (  -0.00001   0.00000   ) 
                     (  -0.70711   0.00000   ) 
                     (  -0.00000   0.00000   ) 
                     (   0.00000   0.00000   ) 
                     (   0.00000   0.00000   ) 
                     (   0.00000   0.00000   ) 
                     (   0.00000   0.00000   ) 
                     (   0.00000   0.00000   ) 
                     (   0.00000   0.00000   ) 
                     (   0.00000   0.00000   ) 
                     (   0.00000   0.00000   ) 
                     (   0.00000   0.00000   ) 
                     (   0.00000   0.00000   ) 
                     (   0.00000   0.00000   ) 
                     (   0.00000   0.00000   ) 
  autoval = 0.1349E+01
     Irreps are as follows:

                     mode #  14
                     (  -0.70711   0.00000   ) 
                     (   0.00001   0.00000   ) 
                     (  -0.00000   0.00000   ) 
                     (  -0.70711   0.00000   ) 
                     (   0.00001   0.00000   ) 
                     (   0.00000   0.00000   ) 
                     (   0.00000   0.00000   ) 
                     (   0.00000   0.00000   ) 
                     (   0.00000   0.00000   ) 
                     (   0.00000   0.00000   ) 
                     (   0.00000   0.00000   ) 
                     (   0.00000   0.00000   ) 
                     (   0.00000   0.00000   ) 
                     (   0.00000   0.00000   ) 
                     (   0.00000   0.00000   ) 
                     (   0.00000   0.00000   ) 
                     (   0.00000   0.00000   ) 
                     (   0.00000   0.00000   ) 
  autoval = 0.1544E+01
     Irreps are as follows:

                     mode #  15
                     (   0.00000   0.00000   ) 
                     (   0.00000   0.00000   ) 
                     (   0.00000   0.00000   ) 
                     (   0.00000   0.00000   ) 
                     (   0.00000   0.00000   ) 
                     (   0.00000   0.00000   ) 
                     (  -0.00003   0.00000   ) 
                     (  -0.50000   0.00000   ) 
                     (   0.00000   0.00000   ) 
                     (   0.00003   0.00000   ) 
                     (   0.50000   0.00000   ) 
                     (  -0.00000   0.00000   ) 
                     (  -0.00003   0.00000   ) 
                     (  -0.50000   0.00000   ) 
                     (   0.00000   0.00000   ) 
                     (   0.00003   0.00000   ) 
                     (   0.50000   0.00000   ) 
                     (  -0.00000   0.00000   ) 
  autoval = 0.1544E+01
     Irreps are as follows:

                     mode #  16
                     (   0.00000   0.00000   ) 
                     (   0.00000   0.00000   ) 
                     (   0.00000   0.00000   ) 
                     (   0.00000   0.00000   ) 
                     (   0.00000   0.00000   ) 
                     (   0.00000   0.00000   ) 
                     (  -0.50000   0.00000   ) 
                     (   0.00003   0.00000   ) 
                     (  -0.00000   0.00000   ) 
                     (   0.50000   0.00000   ) 
                     (  -0.00003   0.00000   ) 
                     (   0.00000   0.00000   ) 
                     (  -0.50000   0.00000   ) 
                     (   0.00003   0.00000   ) 
                     (  -0.00000   0.00000   ) 
                     (   0.50000   0.00000   ) 
                     (  -0.00003   0.00000   ) 
                     (  -0.00000   0.00000   ) 
  autoval = 0.1736E+01
     Irreps are as follows:

                     mode #  17
                     (   0.00000   0.00000   ) 
                     (   0.00000   0.00000   ) 
                     (   0.00000   0.00000   ) 
                     (   0.00000   0.00000   ) 
                     (   0.00000   0.00000   ) 
                     (   0.00000   0.00000   ) 
                     (  -0.00000   0.00000   ) 
                     (  -0.50000   0.00000   ) 
                     (  -0.00000   0.00000   ) 
                     (   0.00000   0.00000   ) 
                     (   0.50000   0.00000   ) 
                     (   0.00000   0.00000   ) 
                     (   0.00000   0.00000   ) 
                     (   0.50000   0.00000   ) 
                     (  -0.00000   0.00000   ) 
                     (  -0.00000   0.00000   ) 
                     (  -0.50000   0.00000   ) 
                     (  -0.00000   0.00000   ) 
  autoval = 0.1736E+01
     Irreps are as follows:

                     mode #  18
                     (   0.00000   0.00000   ) 
                     (   0.00000   0.00000   ) 
                     (   0.00000   0.00000   ) 
                     (   0.00000   0.00000   ) 
                     (   0.00000   0.00000   ) 
                     (   0.00000   0.00000   ) 
                     (  -0.50000   0.00000   ) 
                     (   0.00000   0.00000   ) 
                     (  -0.00000   0.00000   ) 
                     (   0.50000   0.00000   ) 
                     (  -0.00000   0.00000   ) 
                     (  -0.00000   0.00000   ) 
                     (   0.50000   0.00000   ) 
                     (  -0.00000   0.00000   ) 
                     (   0.00000   0.00000   ) 
                     (  -0.50000   0.00000   ) 
                     (   0.00000   0.00000   ) 
                     (   0.00000   0.00000   ) 

      Image parallelization. There are  7 images and    12 representations
      The estimated total work is    19 self-consistent (scf) runs
      I am image number     0 and my work is about    2 scf runs. I calculate: 
      q point number     1, representations:
       0 1

     Calculation of q =    0.0000000   0.0000000   0.0000000

       phonons of MoS2 at X                                                     

     bravais-lattice index     =            0
     lattice parameter (alat)  =       6.0288  a.u.
     unit-cell volume          =     885.0512 (a.u.)^3
     number of atoms/cell      =            6
     number of atomic types    =            2
     kinetic-energy cut-off    =      40.0000  Ry
     charge density cut-off    =     280.0000  Ry
     convergence threshold     =      1.0E-12
     beta                      =       0.4000
     number of iterations used =            4
     Exchange-correlation= PBESOL
                           (   1   4  10   8   0   0   0)


     celldm(1)=    6.02882  celldm(2)=    0.00000  celldm(3)=    0.00000
     celldm(4)=    0.00000  celldm(5)=    0.00000  celldm(6)=    0.00000

     crystal axes: (cart. coord. in units of alat)
               a(1) = (  1.0000  0.0000  0.0000 )  
               a(2) = ( -0.5000  0.8660  0.0000 )  
               a(3) = (  0.0000  0.0000  4.6638 )  

     reciprocal axes: (cart. coord. in units 2 pi/alat)
               b(1) = (  1.0000  0.5774  0.0000 )  
               b(2) = (  0.0000  1.1547  0.0000 )  
               b(3) = (  0.0000  0.0000  0.2144 )  


     Atoms inside the unit cell: 

     Cartesian axes

     site n.  atom      mass           positions (alat units)
        1     Mo  95.9600   tau(    1) = (   -0.00000    0.57735    1.16595  )
        2     Mo  95.9600   tau(    2) = (    0.50000    0.28868    3.49785  )
        3     S   32.0650   tau(    3) = (    0.50000    0.28868    1.65646  )
        4     S   32.0650   tau(    4) = (   -0.00000    0.57735    3.98836  )
        5     S   32.0650   tau(    5) = (    0.50000    0.28868    0.67544  )
        6     S   32.0650   tau(    6) = (   -0.00000    0.57735    3.00734  )

     Computing dynamical matrix for 
                    q = (   0.0000000   0.0000000   0.0000000 )
 
     25 Sym.Ops. (with q -> -q+G )

                                    s                        frac. trans.

      isym =  1     identity                                     

 cryst.   s( 1) = (     1          0          0      )
                  (     0          1          0      )
                  (     0          0          1      )

 cart.    s( 1) = (  1.0000000  0.0000000  0.0000000 )
                  (  0.0000000  1.0000000  0.0000000 )
                  (  0.0000000  0.0000000  1.0000000 )


      isym =  2     180 deg rotation - cart. axis [0,0,1]        

 cryst.   s( 2) = (    -1          0          0      )    f =(  0.0000000 )
                  (     0         -1          0      )       ( -0.0000000 )
                  (     0          0          1      )       ( -0.5000000 )

 cart.    s( 2) = ( -1.0000000  0.0000000  0.0000000 )    f =(  0.0000000 )
                  (  0.0000000 -1.0000000  0.0000000 )       ( -0.0000000 )
                  (  0.0000000  0.0000000  1.0000000 )       ( -2.3319015 )


      isym =  3     180 deg rotation - cart. axis [0,1,0]        

 cryst.   s( 3) = (    -1          0          0      )    f =(  0.0000000 )
                  (     1          1          0      )       (  0.0000000 )
                  (     0          0         -1      )       (  0.5000000 )

 cart.    s( 3) = ( -1.0000000  0.0000000  0.0000000 )    f =(  0.0000000 )
                  (  0.0000000  1.0000000  0.0000000 )       (  0.0000000 )
                  (  0.0000000  0.0000000 -1.0000000 )       (  2.3319015 )


      isym =  4     180 deg rotation - cart. axis [1,0,0]        

 cryst.   s( 4) = (     1          0          0      )
                  (    -1         -1          0      )
                  (     0          0         -1      )

 cart.    s( 4) = (  1.0000000  0.0000000  0.0000000 )
                  (  0.0000000 -1.0000000  0.0000000 )
                  (  0.0000000  0.0000000 -1.0000000 )


      isym =  5     60 deg rotation - cryst. axis [0,0,1]        

 cryst.   s( 5) = (     1          1          0      )    f =(  0.0000000 )
                  (    -1          0          0      )       ( -0.0000000 )
                  (     0          0          1      )       ( -0.5000000 )

 cart.    s( 5) = (  0.5000000 -0.8660254  0.0000000 )    f =(  0.0000000 )
                  (  0.8660254  0.5000000  0.0000000 )       ( -0.0000000 )
                  (  0.0000000  0.0000000  1.0000000 )       ( -2.3319015 )


      isym =  6     60 deg rotation - cryst. axis [0,0,-1]       

 cryst.   s( 6) = (     0         -1          0      )    f =(  0.0000000 )
                  (     1          1          0      )       ( -0.0000000 )
                  (     0          0          1      )       ( -0.5000000 )

 cart.    s( 6) = (  0.5000000  0.8660254  0.0000000 )    f =(  0.0000000 )
                  ( -0.8660254  0.5000000  0.0000000 )       ( -0.0000000 )
                  (  0.0000000  0.0000000  1.0000000 )       ( -2.3319015 )


      isym =  7     120 deg rotation - cryst. axis [0,0,1]       

 cryst.   s( 7) = (     0          1          0      )
                  (    -1         -1          0      )
                  (     0          0          1      )

 cart.    s( 7) = ( -0.5000000 -0.8660254  0.0000000 )
                  (  0.8660254 -0.5000000  0.0000000 )
                  (  0.0000000  0.0000000  1.0000000 )


      isym =  8     120 deg rotation - cryst. axis [0,0,-1]      

 cryst.   s( 8) = (    -1         -1          0      )
                  (     1          0          0      )
                  (     0          0          1      )

 cart.    s( 8) = ( -0.5000000  0.8660254  0.0000000 )
                  ( -0.8660254 -0.5000000  0.0000000 )
                  (  0.0000000  0.0000000  1.0000000 )


      isym =  9     180 deg rotation - cryst. axis [1,-1,0]      

 cryst.   s( 9) = (     0         -1          0      )    f =( -0.0000000 )
                  (    -1          0          0      )       ( -0.0000000 )
                  (     0          0         -1      )       (  0.5000000 )

 cart.    s( 9) = (  0.5000000 -0.8660254  0.0000000 )    f =( -0.0000000 )
                  ( -0.8660254 -0.5000000  0.0000000 )       ( -0.0000000 )
                  (  0.0000000  0.0000000 -1.0000000 )       (  2.3319015 )


      isym = 10     180 deg rotation - cryst. axis [2,1,0]       

 cryst.   s(10) = (     1          1          0      )    f =(  0.0000000 )
                  (     0         -1          0      )       ( -0.0000000 )
                  (     0          0         -1      )       (  0.5000000 )

 cart.    s(10) = (  0.5000000  0.8660254  0.0000000 )    f =(  0.0000000 )
                  (  0.8660254 -0.5000000  0.0000000 )       ( -0.0000000 )
                  (  0.0000000  0.0000000 -1.0000000 )       (  2.3319015 )


      isym = 11     180 deg rotation - cryst. axis [0,1,0]       

 cryst.   s(11) = (    -1         -1          0      )
                  (     0          1          0      )
                  (     0          0         -1      )

 cart.    s(11) = ( -0.5000000 -0.8660254  0.0000000 )
                  ( -0.8660254  0.5000000  0.0000000 )
                  (  0.0000000  0.0000000 -1.0000000 )


      isym = 12     180 deg rotation - cryst. axis [1,1,0]       

 cryst.   s(12) = (     0          1          0      )
                  (     1          0          0      )
                  (     0          0         -1      )

 cart.    s(12) = ( -0.5000000  0.8660254  0.0000000 )
                  (  0.8660254  0.5000000  0.0000000 )
                  (  0.0000000  0.0000000 -1.0000000 )


      isym = 13     inversion                                    

 cryst.   s(13) = (    -1          0          0      )
                  (     0         -1          0      )
                  (     0          0         -1      )

 cart.    s(13) = ( -1.0000000  0.0000000  0.0000000 )
                  (  0.0000000 -1.0000000  0.0000000 )
                  (  0.0000000  0.0000000 -1.0000000 )


      isym = 14     inv. 180 deg rotation - cart. axis [0,0,1]   

 cryst.   s(14) = (     1          0          0      )    f =(  0.0000000 )
                  (     0          1          0      )       (  0.0000000 )
                  (     0          0         -1      )       (  0.5000000 )

 cart.    s(14) = (  1.0000000  0.0000000  0.0000000 )    f =(  0.0000000 )
                  (  0.0000000  1.0000000  0.0000000 )       (  0.0000000 )
                  (  0.0000000  0.0000000 -1.0000000 )       (  2.3319015 )


      isym = 15     inv. 180 deg rotation - cart. axis [0,1,0]   

 cryst.   s(15) = (     1          0          0      )    f =(  0.0000000 )
                  (    -1         -1          0      )       ( -0.0000000 )
                  (     0          0          1      )       ( -0.5000000 )

 cart.    s(15) = (  1.0000000  0.0000000  0.0000000 )    f =(  0.0000000 )
                  (  0.0000000 -1.0000000  0.0000000 )       ( -0.0000000 )
                  (  0.0000000  0.0000000  1.0000000 )       ( -2.3319015 )


      isym = 16     inv. 180 deg rotation - cart. axis [1,0,0]   

 cryst.   s(16) = (    -1          0          0      )
                  (     1          1          0      )
                  (     0          0          1      )

 cart.    s(16) = ( -1.0000000  0.0000000  0.0000000 )
                  (  0.0000000  1.0000000  0.0000000 )
                  (  0.0000000  0.0000000  1.0000000 )


      isym = 17     inv. 60 deg rotation - cryst. axis [0,0,1]   

 cryst.   s(17) = (    -1         -1          0      )    f =(  0.0000000 )
                  (     1          0          0      )       ( -0.0000000 )
                  (     0          0         -1      )       (  0.5000000 )

 cart.    s(17) = ( -0.5000000  0.8660254  0.0000000 )    f =(  0.0000000 )
                  ( -0.8660254 -0.5000000  0.0000000 )       ( -0.0000000 )
                  (  0.0000000  0.0000000 -1.0000000 )       (  2.3319015 )


      isym = 18     inv. 60 deg rotation - cryst. axis [0,0,-1]  

 cryst.   s(18) = (     0          1          0      )    f =( -0.0000000 )
                  (    -1         -1          0      )       ( -0.0000000 )
                  (     0          0         -1      )       (  0.5000000 )

 cart.    s(18) = ( -0.5000000 -0.8660254  0.0000000 )    f =(  0.0000000 )
                  (  0.8660254 -0.5000000  0.0000000 )       ( -0.0000000 )
                  (  0.0000000  0.0000000 -1.0000000 )       (  2.3319015 )


      isym = 19     inv. 120 deg rotation - cryst. axis [0,0,1]  

 cryst.   s(19) = (     0         -1          0      )
                  (     1          1          0      )
                  (     0          0         -1      )

 cart.    s(19) = (  0.5000000  0.8660254  0.0000000 )
                  ( -0.8660254  0.5000000  0.0000000 )
                  (  0.0000000  0.0000000 -1.0000000 )


      isym = 20     inv. 120 deg rotation - cryst. axis [0,0,-1] 

 cryst.   s(20) = (     1          1          0      )
                  (    -1          0          0      )
                  (     0          0         -1      )

 cart.    s(20) = (  0.5000000 -0.8660254  0.0000000 )
                  (  0.8660254  0.5000000  0.0000000 )
                  (  0.0000000  0.0000000 -1.0000000 )


      isym = 21     inv. 180 deg rotation - cryst. axis [1,-1,0] 

 cryst.   s(21) = (     0          1          0      )    f =(  0.0000000 )
                  (     1          0          0      )       ( -0.0000000 )
                  (     0          0          1      )       ( -0.5000000 )

 cart.    s(21) = ( -0.5000000  0.8660254  0.0000000 )    f =(  0.0000000 )
                  (  0.8660254  0.5000000  0.0000000 )       ( -0.0000000 )
                  (  0.0000000  0.0000000  1.0000000 )       ( -2.3319015 )


      isym = 22     inv. 180 deg rotation - cryst. axis [2,1,0]  

 cryst.   s(22) = (    -1         -1          0      )    f =(  0.0000000 )
                  (     0          1          0      )       ( -0.0000000 )
                  (     0          0          1      )       ( -0.5000000 )

 cart.    s(22) = ( -0.5000000 -0.8660254  0.0000000 )    f =(  0.0000000 )
                  ( -0.8660254  0.5000000  0.0000000 )       ( -0.0000000 )
                  (  0.0000000  0.0000000  1.0000000 )       ( -2.3319015 )


      isym = 23     inv. 180 deg rotation - cryst. axis [0,1,0]  

 cryst.   s(23) = (     1          1          0      )
                  (     0         -1          0      )
                  (     0          0          1      )

 cart.    s(23) = (  0.5000000  0.8660254  0.0000000 )
                  (  0.8660254 -0.5000000  0.0000000 )
                  (  0.0000000  0.0000000  1.0000000 )


      isym = 24     inv. 180 deg rotation - cryst. axis [1,1,0]  

 cryst.   s(24) = (     0         -1          0      )
                  (    -1          0          0      )
                  (     0          0          1      )

 cart.    s(24) = (  0.5000000 -0.8660254  0.0000000 )
                  ( -0.8660254 -0.5000000  0.0000000 )
                  (  0.0000000  0.0000000  1.0000000 )


     This transformation sends q -> -q+G

      isym = 25     identity                                     

 cryst.   s(25) = (     1          0          0      )
                  (     0          1          0      )
                  (     0          0          1      )

 cart.    s(25) = (  1.0000000  0.0000000  0.0000000 )
                  (  0.0000000  1.0000000  0.0000000 )
                  (  0.0000000  0.0000000  1.0000000 )


     G cutoff =  257.7884  (  69899 G-vectors)     FFT grid: ( 36, 36,150)
     G cutoff =  147.3077  (  30137 G-vectors)  smooth grid: ( 25, 25,120)
     number of k points=    98
                       cart. coord. in units 2pi/alat
        k(    1) = (   0.0384615   0.0666173   0.0268022), wk =   0.0118343
        k(    2) = (   0.0384615   0.0666173   0.0804065), wk =   0.0118343
        k(    3) = (   0.0384615   0.1554405   0.0268022), wk =   0.0236686
        k(    4) = (   0.0384615   0.1554405   0.0804065), wk =   0.0236686
        k(    5) = (   0.0384615   0.2442636   0.0268022), wk =   0.0236686
        k(    6) = (   0.0384615   0.2442636   0.0804065), wk =   0.0236686
        k(    7) = (   0.0384615   0.3330867   0.0268022), wk =   0.0236686
        k(    8) = (   0.0384615   0.3330867   0.0804065), wk =   0.0236686
        k(    9) = (   0.0384615   0.4219098   0.0268022), wk =   0.0236686
        k(   10) = (   0.0384615   0.4219098   0.0804065), wk =   0.0236686
        k(   11) = (   0.0384615   0.5107329   0.0268022), wk =   0.0236686
        k(   12) = (   0.0384615   0.5107329   0.0804065), wk =   0.0236686
        k(   13) = (   0.0384615  -0.5551445   0.0268022), wk =   0.0236686
        k(   14) = (   0.0384615  -0.5551445   0.0804065), wk =   0.0236686
        k(   15) = (   0.0384615  -0.4663214   0.0268022), wk =   0.0236686
        k(   16) = (   0.0384615  -0.4663214   0.0804065), wk =   0.0236686
        k(   17) = (   0.0384615  -0.3774983   0.0268022), wk =   0.0236686
        k(   18) = (   0.0384615  -0.3774983   0.0804065), wk =   0.0236686
        k(   19) = (   0.0384615  -0.2886751   0.0268022), wk =   0.0236686
        k(   20) = (   0.0384615  -0.2886751   0.0804065), wk =   0.0236686
        k(   21) = (   0.0384615  -0.1998520   0.0268022), wk =   0.0236686
        k(   22) = (   0.0384615  -0.1998520   0.0804065), wk =   0.0236686
        k(   23) = (   0.0384615  -0.1110289   0.0268022), wk =   0.0236686
        k(   24) = (   0.0384615  -0.1110289   0.0804065), wk =   0.0236686
        k(   25) = (   0.0384615  -0.0222058   0.0268022), wk =   0.0118343
        k(   26) = (   0.0384615  -0.0222058   0.0804065), wk =   0.0118343
        k(   27) = (   0.1153846   0.1998520   0.0268022), wk =   0.0118343
        k(   28) = (   0.1153846   0.1998520   0.0804065), wk =   0.0118343
        k(   29) = (   0.1153846   0.2886751   0.0268022), wk =   0.0236686
        k(   30) = (   0.1153846   0.2886751   0.0804065), wk =   0.0236686
        k(   31) = (   0.1153846   0.3774983   0.0268022), wk =   0.0236686
        k(   32) = (   0.1153846   0.3774983   0.0804065), wk =   0.0236686
        k(   33) = (   0.1153846   0.4663214   0.0268022), wk =   0.0236686
        k(   34) = (   0.1153846   0.4663214   0.0804065), wk =   0.0236686
        k(   35) = (   0.1153846   0.5551445   0.0268022), wk =   0.0236686
        k(   36) = (   0.1153846   0.5551445   0.0804065), wk =   0.0236686
        k(   37) = (   0.1153846  -0.5107329   0.0268022), wk =   0.0236686
        k(   38) = (   0.1153846  -0.5107329   0.0804065), wk =   0.0236686
        k(   39) = (   0.1153846  -0.4219098   0.0268022), wk =   0.0236686
        k(   40) = (   0.1153846  -0.4219098   0.0804065), wk =   0.0236686
        k(   41) = (   0.1153846  -0.3330867   0.0268022), wk =   0.0236686
        k(   42) = (   0.1153846  -0.3330867   0.0804065), wk =   0.0236686
        k(   43) = (   0.1153846  -0.2442636   0.0268022), wk =   0.0236686
        k(   44) = (   0.1153846  -0.2442636   0.0804065), wk =   0.0236686
        k(   45) = (   0.1153846  -0.1554405   0.0268022), wk =   0.0236686
        k(   46) = (   0.1153846  -0.1554405   0.0804065), wk =   0.0236686
        k(   47) = (   0.1153846  -0.0666173   0.0268022), wk =   0.0118343
        k(   48) = (   0.1153846  -0.0666173   0.0804065), wk =   0.0118343
        k(   49) = (   0.1923077   0.3330867   0.0268022), wk =   0.0118343
        k(   50) = (   0.1923077   0.3330867   0.0804065), wk =   0.0118343
        k(   51) = (   0.1923077   0.4219098   0.0268022), wk =   0.0236686
        k(   52) = (   0.1923077   0.4219098   0.0804065), wk =   0.0236686
        k(   53) = (   0.1923077   0.5107329   0.0268022), wk =   0.0236686
        k(   54) = (   0.1923077   0.5107329   0.0804065), wk =   0.0236686
        k(   55) = (   0.1923077   0.5995560   0.0268022), wk =   0.0236686
        k(   56) = (   0.1923077   0.5995560   0.0804065), wk =   0.0236686
        k(   57) = (   0.1923077  -0.4663214   0.0268022), wk =   0.0236686
        k(   58) = (   0.1923077  -0.4663214   0.0804065), wk =   0.0236686
        k(   59) = (   0.1923077  -0.3774983   0.0268022), wk =   0.0236686
        k(   60) = (   0.1923077  -0.3774983   0.0804065), wk =   0.0236686
        k(   61) = (   0.1923077  -0.2886751   0.0268022), wk =   0.0236686
        k(   62) = (   0.1923077  -0.2886751   0.0804065), wk =   0.0236686
        k(   63) = (   0.1923077  -0.1998520   0.0268022), wk =   0.0236686
        k(   64) = (   0.1923077  -0.1998520   0.0804065), wk =   0.0236686
        k(   65) = (   0.1923077  -0.1110289   0.0268022), wk =   0.0118343
        k(   66) = (   0.1923077  -0.1110289   0.0804065), wk =   0.0118343
        k(   67) = (   0.2692308   0.4663214   0.0268022), wk =   0.0118343
        k(   68) = (   0.2692308   0.4663214   0.0804065), wk =   0.0118343
        k(   69) = (   0.2692308   0.5551445   0.0268022), wk =   0.0236686
        k(   70) = (   0.2692308   0.5551445   0.0804065), wk =   0.0236686
        k(   71) = (   0.2692308   0.6439676   0.0268022), wk =   0.0236686
        k(   72) = (   0.2692308   0.6439676   0.0804065), wk =   0.0236686
        k(   73) = (   0.2692308  -0.4219098   0.0268022), wk =   0.0236686
        k(   74) = (   0.2692308  -0.4219098   0.0804065), wk =   0.0236686
        k(   75) = (   0.2692308  -0.3330867   0.0268022), wk =   0.0236686
        k(   76) = (   0.2692308  -0.3330867   0.0804065), wk =   0.0236686
        k(   77) = (   0.2692308  -0.2442636   0.0268022), wk =   0.0236686
        k(   78) = (   0.2692308  -0.2442636   0.0804065), wk =   0.0236686
        k(   79) = (   0.2692308  -0.1554405   0.0268022), wk =   0.0118343
        k(   80) = (   0.2692308  -0.1554405   0.0804065), wk =   0.0118343
        k(   81) = (   0.3461538   0.5995560   0.0268022), wk =   0.0118343
        k(   82) = (   0.3461538   0.5995560   0.0804065), wk =   0.0118343
        k(   83) = (   0.3461538   0.6883792   0.0268022), wk =   0.0236686
        k(   84) = (   0.3461538   0.6883792   0.0804065), wk =   0.0236686
        k(   85) = (   0.3461538  -0.3774983   0.0268022), wk =   0.0236686
        k(   86) = (   0.3461538  -0.3774983   0.0804065), wk =   0.0236686
        k(   87) = (   0.3461538  -0.2886751   0.0268022), wk =   0.0236686
        k(   88) = (   0.3461538  -0.2886751   0.0804065), wk =   0.0236686
        k(   89) = (   0.3461538  -0.1998520   0.0268022), wk =   0.0118343
        k(   90) = (   0.3461538  -0.1998520   0.0804065), wk =   0.0118343
        k(   91) = (   0.4230769   0.7327907   0.0268022), wk =   0.0118343
        k(   92) = (   0.4230769   0.7327907   0.0804065), wk =   0.0118343
        k(   93) = (   0.4230769  -0.3330867   0.0268022), wk =   0.0236686
        k(   94) = (   0.4230769  -0.3330867   0.0804065), wk =   0.0236686
        k(   95) = (   0.4230769  -0.2442636   0.0268022), wk =   0.0118343
        k(   96) = (   0.4230769  -0.2442636   0.0804065), wk =   0.0118343
        k(   97) = (  -0.5000000  -0.8660254   0.0268022), wk =   0.0059172
        k(   98) = (  -0.5000000  -0.8660254   0.0804065), wk =   0.0059172

                       cryst. coord.
        k(    1) = (   0.0384615   0.0384615   0.1250000), wk =   0.0118343
        k(    2) = (   0.0384615   0.0384615   0.3750000), wk =   0.0118343
        k(    3) = (   0.0384615   0.1153846   0.1250000), wk =   0.0236686
        k(    4) = (   0.0384615   0.1153846   0.3750000), wk =   0.0236686
        k(    5) = (   0.0384615   0.1923077   0.1250000), wk =   0.0236686
        k(    6) = (   0.0384615   0.1923077   0.3750000), wk =   0.0236686
        k(    7) = (   0.0384615   0.2692308   0.1250000), wk =   0.0236686
        k(    8) = (   0.0384615   0.2692308   0.3750000), wk =   0.0236686
        k(    9) = (   0.0384615   0.3461538   0.1250000), wk =   0.0236686
        k(   10) = (   0.0384615   0.3461538   0.3750000), wk =   0.0236686
        k(   11) = (   0.0384615   0.4230769   0.1250000), wk =   0.0236686
        k(   12) = (   0.0384615   0.4230769   0.3750000), wk =   0.0236686
        k(   13) = (   0.0384615  -0.5000000   0.1250000), wk =   0.0236686
        k(   14) = (   0.0384615  -0.5000000   0.3750000), wk =   0.0236686
        k(   15) = (   0.0384615  -0.4230769   0.1250000), wk =   0.0236686
        k(   16) = (   0.0384615  -0.4230769   0.3750000), wk =   0.0236686
        k(   17) = (   0.0384615  -0.3461538   0.1250000), wk =   0.0236686
        k(   18) = (   0.0384615  -0.3461538   0.3750000), wk =   0.0236686
        k(   19) = (   0.0384615  -0.2692308   0.1250000), wk =   0.0236686
        k(   20) = (   0.0384615  -0.2692308   0.3750000), wk =   0.0236686
        k(   21) = (   0.0384615  -0.1923077   0.1250000), wk =   0.0236686
        k(   22) = (   0.0384615  -0.1923077   0.3750000), wk =   0.0236686
        k(   23) = (   0.0384615  -0.1153846   0.1250000), wk =   0.0236686
        k(   24) = (   0.0384615  -0.1153846   0.3750000), wk =   0.0236686
        k(   25) = (   0.0384615  -0.0384615   0.1250000), wk =   0.0118343
        k(   26) = (   0.0384615  -0.0384615   0.3750000), wk =   0.0118343
        k(   27) = (   0.1153846   0.1153846   0.1250000), wk =   0.0118343
        k(   28) = (   0.1153846   0.1153846   0.3750000), wk =   0.0118343
        k(   29) = (   0.1153846   0.1923077   0.1250000), wk =   0.0236686
        k(   30) = (   0.1153846   0.1923077   0.3750000), wk =   0.0236686
        k(   31) = (   0.1153846   0.2692308   0.1250000), wk =   0.0236686
        k(   32) = (   0.1153846   0.2692308   0.3750000), wk =   0.0236686
        k(   33) = (   0.1153846   0.3461538   0.1250000), wk =   0.0236686
        k(   34) = (   0.1153846   0.3461538   0.3750000), wk =   0.0236686
        k(   35) = (   0.1153846   0.4230769   0.1250000), wk =   0.0236686
        k(   36) = (   0.1153846   0.4230769   0.3750000), wk =   0.0236686
        k(   37) = (   0.1153846  -0.5000000   0.1250000), wk =   0.0236686
        k(   38) = (   0.1153846  -0.5000000   0.3750000), wk =   0.0236686
        k(   39) = (   0.1153846  -0.4230769   0.1250000), wk =   0.0236686
        k(   40) = (   0.1153846  -0.4230769   0.3750000), wk =   0.0236686
        k(   41) = (   0.1153846  -0.3461538   0.1250000), wk =   0.0236686
        k(   42) = (   0.1153846  -0.3461538   0.3750000), wk =   0.0236686
        k(   43) = (   0.1153846  -0.2692308   0.1250000), wk =   0.0236686
        k(   44) = (   0.1153846  -0.2692308   0.3750000), wk =   0.0236686
        k(   45) = (   0.1153846  -0.1923077   0.1250000), wk =   0.0236686
        k(   46) = (   0.1153846  -0.1923077   0.3750000), wk =   0.0236686
        k(   47) = (   0.1153846  -0.1153846   0.1250000), wk =   0.0118343
        k(   48) = (   0.1153846  -0.1153846   0.3750000), wk =   0.0118343
        k(   49) = (   0.1923077   0.1923077   0.1250000), wk =   0.0118343
        k(   50) = (   0.1923077   0.1923077   0.3750000), wk =   0.0118343
        k(   51) = (   0.1923077   0.2692308   0.1250000), wk =   0.0236686
        k(   52) = (   0.1923077   0.2692308   0.3750000), wk =   0.0236686
        k(   53) = (   0.1923077   0.3461538   0.1250000), wk =   0.0236686
        k(   54) = (   0.1923077   0.3461538   0.3750000), wk =   0.0236686
        k(   55) = (   0.1923077   0.4230769   0.1250000), wk =   0.0236686
        k(   56) = (   0.1923077   0.4230769   0.3750000), wk =   0.0236686
        k(   57) = (   0.1923077  -0.5000000   0.1250000), wk =   0.0236686
        k(   58) = (   0.1923077  -0.5000000   0.3750000), wk =   0.0236686
        k(   59) = (   0.1923077  -0.4230769   0.1250000), wk =   0.0236686
        k(   60) = (   0.1923077  -0.4230769   0.3750000), wk =   0.0236686
        k(   61) = (   0.1923077  -0.3461538   0.1250000), wk =   0.0236686
        k(   62) = (   0.1923077  -0.3461538   0.3750000), wk =   0.0236686
        k(   63) = (   0.1923077  -0.2692308   0.1250000), wk =   0.0236686
        k(   64) = (   0.1923077  -0.2692308   0.3750000), wk =   0.0236686
        k(   65) = (   0.1923077  -0.1923077   0.1250000), wk =   0.0118343
        k(   66) = (   0.1923077  -0.1923077   0.3750000), wk =   0.0118343
        k(   67) = (   0.2692308   0.2692308   0.1250000), wk =   0.0118343
        k(   68) = (   0.2692308   0.2692308   0.3750000), wk =   0.0118343
        k(   69) = (   0.2692308   0.3461538   0.1250000), wk =   0.0236686
        k(   70) = (   0.2692308   0.3461538   0.3750000), wk =   0.0236686
        k(   71) = (   0.2692308   0.4230769   0.1250000), wk =   0.0236686
        k(   72) = (   0.2692308   0.4230769   0.3750000), wk =   0.0236686
        k(   73) = (   0.2692308  -0.5000000   0.1250000), wk =   0.0236686
        k(   74) = (   0.2692308  -0.5000000   0.3750000), wk =   0.0236686
        k(   75) = (   0.2692308  -0.4230769   0.1250000), wk =   0.0236686
        k(   76) = (   0.2692308  -0.4230769   0.3750000), wk =   0.0236686
        k(   77) = (   0.2692308  -0.3461538   0.1250000), wk =   0.0236686
        k(   78) = (   0.2692308  -0.3461538   0.3750000), wk =   0.0236686
        k(   79) = (   0.2692308  -0.2692308   0.1250000), wk =   0.0118343
        k(   80) = (   0.2692308  -0.2692308   0.3750000), wk =   0.0118343
        k(   81) = (   0.3461538   0.3461538   0.1250000), wk =   0.0118343
        k(   82) = (   0.3461538   0.3461538   0.3750000), wk =   0.0118343
        k(   83) = (   0.3461538   0.4230769   0.1250000), wk =   0.0236686
        k(   84) = (   0.3461538   0.4230769   0.3750000), wk =   0.0236686
        k(   85) = (   0.3461538  -0.5000000   0.1250000), wk =   0.0236686
        k(   86) = (   0.3461538  -0.5000000   0.3750000), wk =   0.0236686
        k(   87) = (   0.3461538  -0.4230769   0.1250000), wk =   0.0236686
        k(   88) = (   0.3461538  -0.4230769   0.3750000), wk =   0.0236686
        k(   89) = (   0.3461538  -0.3461538   0.1250000), wk =   0.0118343
        k(   90) = (   0.3461538  -0.3461538   0.3750000), wk =   0.0118343
        k(   91) = (   0.4230769   0.4230769   0.1250000), wk =   0.0118343
        k(   92) = (   0.4230769   0.4230769   0.3750000), wk =   0.0118343
        k(   93) = (   0.4230769  -0.5000000   0.1250000), wk =   0.0236686
        k(   94) = (   0.4230769  -0.5000000   0.3750000), wk =   0.0236686
        k(   95) = (   0.4230769  -0.4230769   0.1250000), wk =   0.0118343
        k(   96) = (   0.4230769  -0.4230769   0.3750000), wk =   0.0118343
        k(   97) = (  -0.5000000  -0.5000000   0.1250000), wk =   0.0059172
        k(   98) = (  -0.5000000  -0.5000000   0.3750000), wk =   0.0059172

     PseudoPot. # 1 for Mo read from file:
     pseudo/Mo_ONCV_PBEsol-1.0.upf
     MD5 check sum: 5193ba6a20874d27c2ef80314d1b3445
     Pseudo is Norm-conserving, Zval = 14.0
     Generated using ONCVPSP code by D. R. Hamann
     Using radial grid of 1508 points,  6 beta functions with: 
                l(1) =   0
                l(2) =   0
                l(3) =   1
                l(4) =   1
                l(5) =   2
                l(6) =   2

     PseudoPot. # 2 for S  read from file:
     pseudo/s_pbesol_v1.4.uspp.F.UPF
     MD5 check sum: 0ccfa86ec6eb59065d10aaae963ef2a7
     Pseudo is Ultrasoft + core correction, Zval =  6.0
     Generated by new atomic code, or converted to UPF format
     Using radial grid of  907 points,  6 beta functions with: 
                l(1) =   0
                l(2) =   0
                l(3) =   1
                l(4) =   1
                l(5) =   2
                l(6) =   2
     Q(r) pseudized with  8 coefficients,  rinner =    1.300   1.300   1.300
                                                       1.300   1.300

     point group D_6h(6/mmm)
     there are 12 classes
     the character table:

       E     2C6   2C3   C2    3C2'  3C2'' i     2S3   2S6   s_h   3s_d  3s_v 
A_1g   1.00  1.00  1.00  1.00  1.00  1.00  1.00  1.00  1.00  1.00  1.00  1.00
A_2g   1.00  1.00  1.00  1.00 -1.00 -1.00  1.00  1.00  1.00  1.00 -1.00 -1.00
B_1g   1.00 -1.00  1.00 -1.00  1.00 -1.00  1.00 -1.00  1.00 -1.00  1.00 -1.00
B_2g   1.00 -1.00  1.00 -1.00 -1.00  1.00  1.00 -1.00  1.00 -1.00 -1.00  1.00
E_1g   2.00  1.00 -1.00 -2.00  0.00  0.00  2.00  1.00 -1.00 -2.00  0.00  0.00
E_2g   2.00 -1.00 -1.00  2.00  0.00  0.00  2.00 -1.00 -1.00  2.00  0.00  0.00
A_1u   1.00  1.00  1.00  1.00  1.00  1.00 -1.00 -1.00 -1.00 -1.00 -1.00 -1.00
A_2u   1.00  1.00  1.00  1.00 -1.00 -1.00 -1.00 -1.00 -1.00 -1.00  1.00  1.00
B_1u   1.00 -1.00  1.00 -1.00  1.00 -1.00 -1.00  1.00 -1.00  1.00 -1.00  1.00
B_2u   1.00 -1.00  1.00 -1.00 -1.00  1.00 -1.00  1.00 -1.00  1.00  1.00 -1.00
E_1u   2.00  1.00 -1.00 -2.00  0.00  0.00 -2.00 -1.00  1.00  2.00  0.00  0.00
E_2u   2.00 -1.00 -1.00  2.00  0.00  0.00 -2.00  1.00  1.00 -2.00  0.00  0.00

     the symmetry operations in each class and the name of the first element:

     E        1
                                                                 
     2C6      5    6
                                                                 
     2C3      7    8
                                                                 
     C2       2
                                                                 
     3C2'     4   12   11
                                                                 
     3C2''    3    9   10
                                                                 
     i       13
                                                                 
     2S3     17   18
                                                                 
     2S6     19   20
                                                                 
     s_h     14
                                                                 
     3s_d    16   24   23
                                                                 
     3s_v    15   21   22
                                                                 


     Electric field:
     Dielectric constant
     Born effective charges as d Force / d E


     Atomic displacements:
     There are   12 irreducible representations

     Representation     1      1 modes -  To be done
     Irreps are as follows:

                     mode #   1
                     (   0.00000   0.00000   ) 
                     (   0.00000   0.00000   ) 
                     (   0.00000   0.00000   ) 
                     (   0.00000   0.00000   ) 
                     (   0.00000   0.00000   ) 
                     (   0.00000   0.00000   ) 
                     (  -0.00000   0.00000   ) 
                     (  -0.00000   0.00000   ) 
                     (  -0.50000   0.00000   ) 
                     (  -0.00000   0.00000   ) 
                     (  -0.00000   0.00000   ) 
                     (  -0.50000   0.00000   ) 
                     (   0.00000   0.00000   ) 
                     (   0.00000   0.00000   ) 
                     (   0.50000   0.00000   ) 
                     (   0.00000   0.00000   ) 
                     (   0.00000   0.00000   ) 
                     (   0.50000   0.00000   ) 

     Representation     2      1 modes -  Not done in this run
     Irreps are as follows:

                     mode #   2
                     (   0.00000   0.00000   ) 
                     (   0.00000   0.00000   ) 
                     (   0.00000   0.00000   ) 
                     (   0.00000   0.00000   ) 
                     (   0.00000   0.00000   ) 
                     (   0.00000   0.00000   ) 
                     (   0.00000   0.00000   ) 
                     (  -0.00000   0.00000   ) 
                     (  -0.50000   0.00000   ) 
                     (   0.00000   0.00000   ) 
                     (  -0.00000   0.00000   ) 
                     (   0.50000   0.00000   ) 
                     (  -0.00000   0.00000   ) 
                     (   0.00000   0.00000   ) 
                     (  -0.50000   0.00000   ) 
                     (  -0.00000   0.00000   ) 
                     (   0.00000   0.00000   ) 
                     (   0.50000   0.00000   ) 

     Representation     3      1 modes -  Not done in this run
     Irreps are as follows:

                     mode #   3
                     (  -0.00000   0.00000   ) 
                     (   0.00000   0.00000   ) 
                     (  -0.70711   0.00000   ) 
                     (   0.00000   0.00000   ) 
                     (  -0.00000   0.00000   ) 
                     (   0.70711   0.00000   ) 
                     (   0.00000   0.00000   ) 
                     (   0.00000   0.00000   ) 
                     (   0.00000   0.00000   ) 
                     (   0.00000   0.00000   ) 
                     (   0.00000   0.00000   ) 
                     (   0.00000   0.00000   ) 
                     (   0.00000   0.00000   ) 
                     (   0.00000   0.00000   ) 
                     (   0.00000   0.00000   ) 
                     (   0.00000   0.00000   ) 
                     (   0.00000   0.00000   ) 
                     (   0.00000   0.00000   ) 

     Representation     4      2 modes -  Not done in this run
     Irreps are as follows:

           mode #   4                           mode #   5
           (   0.00000   0.00000   )            (   0.00000   0.00000   ) 
           (   0.00000   0.00000   )            (   0.00000   0.00000   ) 
           (   0.00000   0.00000   )            (   0.00000   0.00000   ) 
           (   0.00000   0.00000   )            (   0.00000   0.00000   ) 
           (   0.00000   0.00000   )            (   0.00000   0.00000   ) 
           (   0.00000   0.00000   )            (   0.00000   0.00000   ) 
           (  -0.00020   0.00000   )            (  -0.50000   0.00000   ) 
           (  -0.50000   0.00000   )            (   0.00020   0.00000   ) 
           (   0.00000   0.00000   )            (   0.00000   0.00000   ) 
           (  -0.00020   0.00000   )            (  -0.50000   0.00000   ) 
           (  -0.50000   0.00000   )            (   0.00020   0.00000   ) 
           (   0.00000   0.00000   )            (  -0.00000   0.00000   ) 
           (   0.00020   0.00000   )            (   0.50000   0.00000   ) 
           (   0.50000   0.00000   )            (  -0.00020   0.00000   ) 
           (  -0.00000   0.00000   )            (  -0.00000   0.00000   ) 
           (   0.00020   0.00000   )            (   0.50000   0.00000   ) 
           (   0.50000   0.00000   )            (  -0.00020   0.00000   ) 
           (  -0.00000   0.00000   )            (   0.00000   0.00000   ) 

     Representation     5      2 modes -  Not done in this run
     Irreps are as follows:

           mode #   6                           mode #   7
           (  -0.00004   0.00000   )            (  -0.70711   0.00000   ) 
           (  -0.70711   0.00000   )            (   0.00004   0.00000   ) 
           (  -0.00000   0.00000   )            (   0.00000   0.00000   ) 
           (   0.00004   0.00000   )            (   0.70711   0.00000   ) 
           (   0.70711   0.00000   )            (  -0.00004   0.00000   ) 
           (  -0.00000   0.00000   )            (  -0.00000   0.00000   ) 
           (   0.00000   0.00000   )            (   0.00000   0.00000   ) 
           (   0.00000   0.00000   )            (   0.00000   0.00000   ) 
           (   0.00000   0.00000   )            (   0.00000   0.00000   ) 
           (   0.00000   0.00000   )            (   0.00000   0.00000   ) 
           (   0.00000   0.00000   )            (   0.00000   0.00000   ) 
           (   0.00000   0.00000   )            (   0.00000   0.00000   ) 
           (   0.00000   0.00000   )            (   0.00000   0.00000   ) 
           (   0.00000   0.00000   )            (   0.00000   0.00000   ) 
           (   0.00000   0.00000   )            (   0.00000   0.00000   ) 
           (   0.00000   0.00000   )            (   0.00000   0.00000   ) 
           (   0.00000   0.00000   )            (   0.00000   0.00000   ) 
           (   0.00000   0.00000   )            (   0.00000   0.00000   ) 

     Representation     6      2 modes -  Not done in this run
     Irreps are as follows:

           mode #   8                           mode #   9
           (   0.00000   0.00000   )            (   0.00000   0.00000   ) 
           (   0.00000   0.00000   )            (   0.00000   0.00000   ) 
           (   0.00000   0.00000   )            (   0.00000   0.00000   ) 
           (   0.00000   0.00000   )            (   0.00000   0.00000   ) 
           (   0.00000   0.00000   )            (   0.00000   0.00000   ) 
           (   0.00000   0.00000   )            (   0.00000   0.00000   ) 
           (  -0.00003   0.00000   )            (  -0.50000   0.00000   ) 
           (  -0.50000   0.00000   )            (   0.00003   0.00000   ) 
           (   0.00000   0.00000   )            (  -0.00000   0.00000   ) 
           (   0.00003   0.00000   )            (   0.50000   0.00000   ) 
           (   0.50000   0.00000   )            (  -0.00003   0.00000   ) 
           (  -0.00000   0.00000   )            (   0.00000   0.00000   ) 
           (  -0.00003   0.00000   )            (  -0.50000   0.00000   ) 
           (  -0.50000   0.00000   )            (   0.00003   0.00000   ) 
           (   0.00000   0.00000   )            (  -0.00000   0.00000   ) 
           (   0.00003   0.00000   )            (   0.50000   0.00000   ) 
           (   0.50000   0.00000   )            (  -0.00003   0.00000   ) 
           (  -0.00000   0.00000   )            (  -0.00000   0.00000   ) 

     Representation     7      1 modes -  Not done in this run
     Irreps are as follows:

                     mode #  10
                     (   0.00000   0.00000   ) 
                     (   0.00000   0.00000   ) 
                     (   0.00000   0.00000   ) 
                     (   0.00000   0.00000   ) 
                     (   0.00000   0.00000   ) 
                     (   0.00000   0.00000   ) 
                     (   0.00000   0.00000   ) 
                     (  -0.00000   0.00000   ) 
                     (  -0.50000   0.00000   ) 
                     (   0.00000   0.00000   ) 
                     (  -0.00000   0.00000   ) 
                     (  -0.50000   0.00000   ) 
                     (  -0.00000   0.00000   ) 
                     (   0.00000   0.00000   ) 
                     (  -0.50000   0.00000   ) 
                     (  -0.00000   0.00000   ) 
                     (   0.00000   0.00000   ) 
                     (  -0.50000   0.00000   ) 

     Representation     8      1 modes -  Not done in this run
     Irreps are as follows:

                     mode #  11
                     (  -0.00000   0.00000   ) 
                     (   0.00000   0.00000   ) 
                     (  -0.70711   0.00000   ) 
                     (  -0.00000   0.00000   ) 
                     (  -0.00000   0.00000   ) 
                     (  -0.70711   0.00000   ) 
                     (   0.00000   0.00000   ) 
                     (   0.00000   0.00000   ) 
                     (   0.00000   0.00000   ) 
                     (   0.00000   0.00000   ) 
                     (   0.00000   0.00000   ) 
                     (   0.00000   0.00000   ) 
                     (   0.00000   0.00000   ) 
                     (   0.00000   0.00000   ) 
                     (   0.00000   0.00000   ) 
                     (   0.00000   0.00000   ) 
                     (   0.00000   0.00000   ) 
                     (   0.00000   0.00000   ) 

     Representation     9      1 modes -  Not done in this run
     Irreps are as follows:

                     mode #  12
                     (   0.00000   0.00000   ) 
                     (   0.00000   0.00000   ) 
                     (   0.00000   0.00000   ) 
                     (   0.00000   0.00000   ) 
                     (   0.00000   0.00000   ) 
                     (   0.00000   0.00000   ) 
                     (  -0.00000   0.00000   ) 
                     (  -0.00000   0.00000   ) 
                     (  -0.50000   0.00000   ) 
                     (  -0.00000   0.00000   ) 
                     (  -0.00000   0.00000   ) 
                     (   0.50000   0.00000   ) 
                     (   0.00000   0.00000   ) 
                     (   0.00000   0.00000   ) 
                     (   0.50000   0.00000   ) 
                     (   0.00000   0.00000   ) 
                     (   0.00000   0.00000   ) 
                     (  -0.50000   0.00000   ) 

     Representation    10      2 modes -  Not done in this run
     Irreps are as follows:

           mode #  13                           mode #  14
           (   0.00000   0.00000   )            (   0.00000   0.00000   ) 
           (   0.00000   0.00000   )            (   0.00000   0.00000   ) 
           (   0.00000   0.00000   )            (   0.00000   0.00000   ) 
           (   0.00000   0.00000   )            (   0.00000   0.00000   ) 
           (   0.00000   0.00000   )            (   0.00000   0.00000   ) 
           (   0.00000   0.00000   )            (   0.00000   0.00000   ) 
           (  -0.00003   0.00000   )            (  -0.50000   0.00000   ) 
           (   0.50000   0.00000   )            (  -0.00003   0.00000   ) 
           (   0.00000   0.00000   )            (  -0.00000   0.00000   ) 
           (  -0.00003   0.00000   )            (  -0.50000   0.00000   ) 
           (   0.50000   0.00000   )            (  -0.00003   0.00000   ) 
           (  -0.00000   0.00000   )            (  -0.00000   0.00000   ) 
           (  -0.00003   0.00000   )            (  -0.50000   0.00000   ) 
           (   0.50000   0.00000   )            (  -0.00003   0.00000   ) 
           (  -0.00000   0.00000   )            (   0.00000   0.00000   ) 
           (  -0.00003   0.00000   )            (  -0.50000   0.00000   ) 
           (   0.50000   0.00000   )            (  -0.00003   0.00000   ) 
           (   0.00000   0.00000   )            (   0.00000   0.00000   ) 

     Representation    11      2 modes -  Not done in this run
     Irreps are as follows:

           mode #  15                           mode #  16
           (  -0.00001   0.00000   )            (  -0.70711   0.00000   ) 
           (  -0.70711   0.00000   )            (   0.00001   0.00000   ) 
           (   0.00000   0.00000   )            (  -0.00000   0.00000   ) 
           (  -0.00001   0.00000   )            (  -0.70711   0.00000   ) 
           (  -0.70711   0.00000   )            (   0.00001   0.00000   ) 
           (  -0.00000   0.00000   )            (   0.00000   0.00000   ) 
           (   0.00000   0.00000   )            (   0.00000   0.00000   ) 
           (   0.00000   0.00000   )            (   0.00000   0.00000   ) 
           (   0.00000   0.00000   )            (   0.00000   0.00000   ) 
           (   0.00000   0.00000   )            (   0.00000   0.00000   ) 
           (   0.00000   0.00000   )            (   0.00000   0.00000   ) 
           (   0.00000   0.00000   )            (   0.00000   0.00000   ) 
           (   0.00000   0.00000   )            (   0.00000   0.00000   ) 
           (   0.00000   0.00000   )            (   0.00000   0.00000   ) 
           (   0.00000   0.00000   )            (   0.00000   0.00000   ) 
           (   0.00000   0.00000   )            (   0.00000   0.00000   ) 
           (   0.00000   0.00000   )            (   0.00000   0.00000   ) 
           (   0.00000   0.00000   )            (   0.00000   0.00000   ) 

     Representation    12      2 modes -  Not done in this run
     Irreps are as follows:

           mode #  17                           mode #  18
           (   0.00000   0.00000   )            (   0.00000   0.00000   ) 
           (   0.00000   0.00000   )            (   0.00000   0.00000   ) 
           (   0.00000   0.00000   )            (   0.00000   0.00000   ) 
           (   0.00000   0.00000   )            (   0.00000   0.00000   ) 
           (   0.00000   0.00000   )            (   0.00000   0.00000   ) 
           (   0.00000   0.00000   )            (   0.00000   0.00000   ) 
           (  -0.00000   0.00000   )            (  -0.50000   0.00000   ) 
           (  -0.50000   0.00000   )            (   0.00000   0.00000   ) 
           (  -0.00000   0.00000   )            (  -0.00000   0.00000   ) 
           (   0.00000   0.00000   )            (   0.50000   0.00000   ) 
           (   0.50000   0.00000   )            (  -0.00000   0.00000   ) 
           (   0.00000   0.00000   )            (  -0.00000   0.00000   ) 
           (   0.00000   0.00000   )            (   0.50000   0.00000   ) 
           (   0.50000   0.00000   )            (  -0.00000   0.00000   ) 
           (  -0.00000   0.00000   )            (   0.00000   0.00000   ) 
           (  -0.00000   0.00000   )            (  -0.50000   0.00000   ) 
           (  -0.50000   0.00000   )            (   0.00000   0.00000   ) 
           (  -0.00000   0.00000   )            (   0.00000   0.00000   ) 

     Compute atoms:     3,    4,    5,    6,



     Alpha used in Ewald sum =   2.5000
     PHONON       :   1m43.03s CPU   1m44.60s WALL


     Electric Fields Calculation

      iter #   1 total cpu time :   426.2 secs   av.it.:  11.4
      thresh= 1.000E-02 alpha_mix =  0.400 |ddv_scf|^2 =  1.002E-04

      iter #   2 total cpu time :   522.2 secs   av.it.:  14.6
      thresh= 1.001E-03 alpha_mix =  0.400 |ddv_scf|^2 =  1.570E-04

      iter #   3 total cpu time :   601.5 secs   av.it.:  11.4
      thresh= 1.253E-03 alpha_mix =  0.400 |ddv_scf|^2 =  3.292E-07

      iter #   4 total cpu time :   710.7 secs   av.it.:  16.9
      thresh= 5.737E-05 alpha_mix =  0.400 |ddv_scf|^2 =  3.165E-08

      iter #   5 total cpu time :   812.8 secs   av.it.:  15.5
      thresh= 1.779E-05 alpha_mix =  0.400 |ddv_scf|^2 =  1.534E-09

      iter #   6 total cpu time :   926.0 secs   av.it.:  17.7
      thresh= 3.917E-06 alpha_mix =  0.400 |ddv_scf|^2 =  8.373E-11

      iter #   7 total cpu time :  1042.4 secs   av.it.:  18.5
      thresh= 9.150E-07 alpha_mix =  0.400 |ddv_scf|^2 =  2.067E-12

      iter #   8 total cpu time :  1162.2 secs   av.it.:  19.2
      thresh= 1.438E-07 alpha_mix =  0.400 |ddv_scf|^2 =  7.609E-14

     End of electric fields calculation

          Dielectric constant in cartesian axis 

          (      12.747967245       0.000000000      -0.000000000 )
          (       0.000000000      12.747967245      -0.000000000 )
          (      -0.000000000      -0.000000000       3.288647629 )

          Effective charges (d Force / dE) in cartesian axis

           atom      1   Mo 
      Ex  (       -1.04732        0.00000        0.00000 )
      Ey  (       -0.00000       -1.04732        0.00000 )
      Ez  (        0.00000        0.00000       -0.25927 )
           atom      2   Mo 
      Ex  (       -1.04732       -0.00000        0.00000 )
      Ey  (       -0.00000       -1.04732        0.00000 )
      Ez  (        0.00000        0.00000       -0.25927 )
           atom      3   S  
      Ex  (        0.52475       -0.00000       -0.00000 )
      Ey  (       -0.00000        0.52475        0.00000 )
      Ez  (        0.00000        0.00000        0.13105 )
           atom      4   S  
      Ex  (        0.52475        0.00000        0.00000 )
      Ey  (       -0.00000        0.52475       -0.00000 )
      Ez  (       -0.00000       -0.00000        0.13105 )
           atom      5   S  
      Ex  (        0.52475        0.00000        0.00000 )
      Ey  (        0.00000        0.52475       -0.00000 )
      Ez  (       -0.00000        0.00000        0.13105 )
           atom      6   S  
      Ex  (        0.52475        0.00000       -0.00000 )
      Ey  (        0.00000        0.52475        0.00000 )
      Ez  (        0.00000       -0.00000        0.13105 )


     Representation #   1 mode #   1

     Self-consistent Calculation

      iter #   1 total cpu time :  1351.9 secs   av.it.:   9.1
      thresh= 1.000E-02 alpha_mix =  0.400 |ddv_scf|^2 =  2.427E-05

      iter #   2 total cpu time :  1387.3 secs   av.it.:  16.6
      thresh= 4.927E-04 alpha_mix =  0.400 |ddv_scf|^2 =  4.901E-05

      iter #   3 total cpu time :  1419.8 secs   av.it.:  15.1
      thresh= 7.001E-04 alpha_mix =  0.400 |ddv_scf|^2 =  6.114E-07

      iter #   4 total cpu time :  1452.0 secs   av.it.:  14.8
      thresh= 7.819E-05 alpha_mix =  0.400 |ddv_scf|^2 =  1.172E-09

      iter #   5 total cpu time :  1488.4 secs   av.it.:  17.1
      thresh= 3.423E-06 alpha_mix =  0.400 |ddv_scf|^2 =  4.872E-11

      iter #   6 total cpu time :  1522.8 secs   av.it.:  15.8
      thresh= 6.980E-07 alpha_mix =  0.400 |ddv_scf|^2 =  6.686E-12

      iter #   7 total cpu time :  1558.3 secs   av.it.:  16.7
      thresh= 2.586E-07 alpha_mix =  0.400 |ddv_scf|^2 =  1.907E-13

     End of self-consistent calculation

     Convergence has been achieved 

     Stopping because representation    2 is not done
 
     PHONON       :  25m19.52s CPU  25m59.89s WALL

     INITIALIZATION: 
     phq_setup    :      0.25s CPU      0.30s WALL (       1 calls)
     phq_init     :    101.95s CPU    102.85s WALL (       1 calls)
 
     phq_init     :    101.95s CPU    102.85s WALL (       1 calls)
     set_drhoc    :      1.26s CPU      1.27s WALL (       3 calls)
     init_vloc    :      0.03s CPU      0.03s WALL (       1 calls)
     init_us_1    :      0.15s CPU      0.16s WALL (       1 calls)
     newd         :      0.04s CPU      0.06s WALL (       1 calls)
     dvanqq       :     60.58s CPU     61.03s WALL (       1 calls)
     drho         :     37.95s CPU     38.34s WALL (       1 calls)
     cmpt_qdipol  :      0.00s CPU      0.00s WALL (       1 calls)
 
     DIELECTRIC CONSTANT AND EFFECTIVE CHARGES:
     solve_e      :   1034.22s CPU   1057.69s WALL (       1 calls)
     dielec       :      0.30s CPU      2.82s WALL (       1 calls)
     zstar_eu     :    156.63s CPU    164.51s WALL (       1 calls)
 
     DYNAMICAL MATRIX:
     dynmat0      :      1.91s CPU      1.94s WALL (       1 calls)
     phqscf       :    225.32s CPU    230.01s WALL (       1 calls)
     dynmatrix    :      0.02s CPU      0.25s WALL (       1 calls)
 
     phqscf       :    225.32s CPU    230.01s WALL (       1 calls)
     solve_linter :    224.73s CPU    229.37s WALL (       1 calls)
     drhodv       :      0.59s CPU      0.63s WALL (       1 calls)
 
     dynmat0      :      1.91s CPU      1.94s WALL (       1 calls)
     dynmat_us    :      0.84s CPU      0.85s WALL (       1 calls)
     d2ionq       :      0.11s CPU      0.11s WALL (       1 calls)
     dynmatcc     :      0.95s CPU      0.96s WALL (       1 calls)
 
     dynmat_us    :      0.84s CPU      0.85s WALL (       1 calls)
     addusdynmat  :      0.00s CPU      0.00s WALL (       1 calls)
 
     phqscf       :    225.32s CPU    230.01s WALL (       1 calls)
     solve_linter :    224.73s CPU    229.37s WALL (       1 calls)
 
     solve_linter :    224.73s CPU    229.37s WALL (       1 calls)
     dvqpsi_us    :     32.91s CPU     33.09s WALL (     475 calls)
     ortho        :      7.63s CPU      7.70s WALL (     850 calls)
     cgsolve      :   1107.87s CPU   1114.65s WALL (     850 calls)
     incdrhoscf   :     45.47s CPU     45.97s WALL (     850 calls)
     addusddens   :     18.47s CPU     18.76s WALL (      19 calls)
     vpsifft      :      6.95s CPU      7.06s WALL (     150 calls)
     dv_of_drho   :      1.82s CPU      1.85s WALL (      34 calls)
     mix_pot      :      0.26s CPU      4.25s WALL (      15 calls)
     psymdvscf    :      1.31s CPU      1.31s WALL (       7 calls)
     newdq        :     14.46s CPU     14.52s WALL (      15 calls)
     adddvscf     :      4.79s CPU      4.83s WALL (     675 calls)
     drhodvus     :      0.05s CPU      0.49s WALL (       1 calls)
 
     dvqpsi_us    :     32.91s CPU     33.09s WALL (     475 calls)
     dvqpsi_us_on :     10.28s CPU     10.30s WALL (     475 calls)
 
     cgsolve      :   1107.87s CPU   1114.65s WALL (     850 calls)
     ch_psi       :   1077.66s CPU   1084.06s WALL (   23682 calls)
 
     ch_psi       :   1077.66s CPU   1084.06s WALL (   23682 calls)
     h_psi        :    826.07s CPU    831.32s WALL (   23682 calls)
     last         :    173.47s CPU    174.26s WALL (   23682 calls)
 
     h_psi        :    826.07s CPU    831.32s WALL (   23682 calls)
     add_vuspsi   :     64.81s CPU     65.10s WALL (   23682 calls)
 
     incdrhoscf   :     45.47s CPU     45.97s WALL (     850 calls)
     addusdbec    :      4.16s CPU      4.18s WALL (    1300 calls)
 
     drhodvus     :      0.05s CPU      0.49s WALL (       1 calls)
 
      General routines
     calbec       :    147.62s CPU    148.63s WALL (   60814 calls)
     fft          :      2.61s CPU      2.64s WALL (    1086 calls)
     ffts         :      0.45s CPU      0.46s WALL (     595 calls)
     fftw         :    689.34s CPU    694.27s WALL (  937284 calls)
     davcio       :      1.65s CPU     30.08s WALL (    7498 calls)
     write_rec    :      0.34s CPU      0.95s WALL (      16 calls)
 
 
     PHONON       :  25m19.52s CPU  25m59.89s WALL

 
   This run was terminated on:  10:46:42  15Jan2022            

=------------------------------------------------------------------------------=
   JOB DONE.
=------------------------------------------------------------------------------=
